LAMMPS data file via write_data, version 15 Sep 2022, timestep = 1

80 atoms
10 atom types
80 bonds
20 bond types
124 angles
31 angle types
220 dihedrals
55 dihedral types

0.0 12.8863 xlo xhi
0.0 9.3816 ylo yhi
0.0 6.3990885746 zlo zhi
5.7445732054e-16 -3.0796733551 6.2342319128e-16 xy xz yz

Masses

1 12.01
2 12.01
3 12.01
4 14.01
5 16
6 16
7 1.008
8 1.008
9 1.008
10 1.008

Bond Coeffs

1 harmonic    4.61100000e+02    1.39840000e+00
2 harmonic    4.61100000e+02    1.39840000e+00
3 harmonic    3.84200000e+02    1.41210000e+00
4 harmonic    4.61100000e+02    1.39840000e+00
5 harmonic    3.45800000e+02    1.08600000e+00
6 harmonic    4.61100000e+02    1.39840000e+00
7 harmonic    3.45800000e+02    1.08600000e+00
8 harmonic    4.61100000e+02    1.39840000e+00
9 harmonic    3.84000000e+02    1.36370000e+00
10 harmonic    4.61100000e+02    1.39840000e+00
11 harmonic    3.45800000e+02    1.08600000e+00
12 harmonic    3.45800000e+02    1.08600000e+00
13 harmonic    3.13000000e+02    1.52410000e+00
14 harmonic    4.27600000e+02    1.37890000e+00
15 harmonic    6.37700000e+02    1.21830000e+00
16 harmonic    3.30600000e+02    1.09690000e+00
17 harmonic    3.30600000e+02    1.09690000e+00
18 harmonic    3.30600000e+02    1.09690000e+00
19 harmonic    4.03200000e+02    1.01290000e+00
20 harmonic    3.71400000e+02    9.73000000e-01

Angle Coeffs

1 harmonic    6.66000000e+01    1.20020052e+02
2 harmonic    4.82000000e+01    1.19880051e+02
3 harmonic    6.66000000e+01    1.20020052e+02
4 harmonic    4.82000000e+01    1.19880051e+02
5 harmonic    6.38000000e+01    1.23710053e+02
6 harmonic    4.76000000e+01    1.16000050e+02
7 harmonic    6.66000000e+01    1.20020052e+02
8 harmonic    6.79000000e+01    1.20190052e+02
9 harmonic    6.66000000e+01    1.20020052e+02
10 harmonic    4.82000000e+01    1.19880051e+02
11 harmonic    4.82000000e+01    1.19880051e+02
12 harmonic    6.66000000e+01    1.20020052e+02
13 harmonic    6.95000000e+01    1.19900051e+02
14 harmonic    4.82000000e+01    1.19880051e+02
15 harmonic    6.66000000e+01    1.20020052e+02
16 harmonic    4.82000000e+01    1.19880051e+02
17 harmonic    4.90000000e+01    1.08580046e+02
18 harmonic    6.95000000e+01    1.19900051e+02
19 harmonic    4.82000000e+01    1.19880051e+02
20 harmonic    6.79000000e+01    1.20190052e+02
21 harmonic    4.82000000e+01    1.19880051e+02
22 harmonic    4.69000000e+01    1.08770047e+02
23 harmonic    4.69000000e+01    1.08770047e+02
24 harmonic    4.69000000e+01    1.08770047e+02
25 harmonic    4.83000000e+01    1.17550051e+02
26 harmonic    6.68000000e+01    1.15180049e+02
27 harmonic    6.74000000e+01    1.23200053e+02
28 harmonic    7.42000000e+01    1.23050053e+02
29 harmonic    3.94000000e+01    1.07580046e+02
30 harmonic    3.94000000e+01    1.07580046e+02
31 harmonic    3.94000000e+01    1.07580046e+02

Dihedral Coeffs

1 charmm    3.62500000e+00         2       180         0
2 charmm    3.62500000e+00         2       180         0
3 charmm    1.10000000e+00         2       180         0
4 charmm    1.10000000e+00         2       180         0
5 charmm    3.62500000e+00         2       180         0
6 charmm    3.62500000e+00         2       180         0
7 charmm    2.50000000e+00         2       180         0
8 charmm    2.50000000e+00         2       180         0
9 charmm    3.62500000e+00         2       180         0
10 charmm    3.62500000e+00         2       180         0
11 charmm    4.50000000e-01         2       180         0
12 charmm    4.50000000e-01         2       180         0
13 charmm    3.62500000e+00         2       180         0
14 charmm    3.62500000e+00         2       180         0
15 charmm    1.10000000e+00         2       180         0
16 charmm    3.62500000e+00         2       180         0
17 charmm    3.62500000e+00         2       180         0
18 charmm    9.00000000e-01         2       180         0
19 charmm    1.10000000e+00         2       180         0
20 charmm    3.62500000e+00         2       180         0
21 charmm    3.62500000e+00         2       180         0
22 charmm    1.10000000e+00         2       180         0
23 charmm    3.62500000e+00         2       180         0
24 charmm    9.00000000e-01         2       180         0
25 charmm    3.62500000e+00         2       180         0
26 charmm    3.62500000e+00         2       180         0
27 charmm    4.50000000e-01         2       180         0
28 charmm    4.50000000e-01         2       180         0
29 charmm    3.62500000e+00         2       180         0
30 charmm    1.10000000e+00         2       180         0
31 charmm    2.50000000e+00         2       180         0
32 charmm    1.05000000e+01         2       180         0
33 charmm    3.62500000e+00         2       180         0
34 charmm    3.62500000e+00         2       180         0
35 charmm    1.10000000e+00         2       180         0
36 charmm    3.62500000e+00         2       180         0
37 charmm    3.62500000e+00         2       180         0
38 charmm    0.00000000e+00         6       180         0
39 charmm    0.00000000e+00         6       180         0
40 charmm    0.00000000e+00         6       180         0
41 charmm    3.62500000e+00         2       180         0
42 charmm    3.62500000e+00         2       180         0
43 multi/harmonic    8.00000000e-01    8.00000000e-01    0.00000000e+00    0.00000000e+00    0.00000000e+00
44 multi/harmonic    0.00000000e+00    0.00000000e+00    0.00000000e+00    0.00000000e+00    0.00000000e+00
45 charmm    8.00000000e-02         3       180         0
46 multi/harmonic    8.00000000e-01    8.00000000e-01    0.00000000e+00    0.00000000e+00    0.00000000e+00
47 multi/harmonic    0.00000000e+00    0.00000000e+00    0.00000000e+00    0.00000000e+00    0.00000000e+00
48 charmm    8.00000000e-02         3       180         0
49 multi/harmonic    8.00000000e-01    8.00000000e-01    0.00000000e+00    0.00000000e+00    0.00000000e+00
50 multi/harmonic    0.00000000e+00    0.00000000e+00    0.00000000e+00    0.00000000e+00    0.00000000e+00
51 charmm    8.00000000e-02         3       180         0
52 multi/harmonic    2.00000000e+00    2.00000000e+00    0.00000000e+00    0.00000000e+00    0.00000000e+00
53 charmm    2.50000000e+00         2       180         0
54 charmm    3.62500000e+00         2       180         0
55 charmm    3.62500000e+00         2       180         0

Atoms # full

1	1	1	0.0376	6.764	6.082	0.976	0	0	0
2	1	1	-0.1355	7.008	6.939	-0.086	0	0	0
3	1	1	-0.1585	6.001	7.771	-0.551	0	0	0
4	1	1	0.0961	4.749	7.746	0.046	0	0	0
5	1	1	-0.1585	4.505	6.889	1.109	0	0	0
6	1	1	-0.1355	5.512	6.057	1.574	0	0	0
7	1	2	0.6651	8.016	4.621	2.522	0	0	0
8	1	3	-0.1791	9.295	3.831	2.717	0	0	0
9	1	4	-0.4731	7.818	5.245	1.362	0	0	0
10	1	5	-0.4971	3.751	8.638	-0.358	0	0	0
11	1	6	-0.5911	8.506	5.187	0.638	0	0	0
12	1	7	0.416	3.575	8.522	-1.335	0	0	0
13	1	8	0.153	7.91	6.957	-0.517	0	0	0
14	1	8	0.1435	6.177	8.389	-1.317	0	0	0
15	1	8	0.1435	3.603	6.871	1.539	0	0	0
16	1	8	0.153	5.336	5.439	2.34	0	0	0
17	1	9	0.0687	10.081	4.411	2.503	0	0	0
18	1	9	0.0687	9.318	3.455	3.643	0	0	0
19	1	9	0.0687	9.369	3.135	2.003	0	0	0
20	1	10	0.3125	7.248	4.701	3.472	0	0	0
41	3	1	0.0376	0.32	7.99	0.976	0	0	0
42	3	1	-0.1355	0.564	7.134	-0.086	0	0	0
43	3	1	-0.1585	-0.442	6.301	-0.551	0	0	0
44	3	1	0.0961	-1.694	6.326	0.046	0	0	0
45	3	1	-0.1585	-1.938	7.183	1.109	0	0	0
46	3	1	-0.1355	-0.931	8.015	1.574	0	0	0
47	3	2	0.6651	1.573	9.452	2.522	0	0	0
48	3	3	-0.1791	2.852	10.242	2.717	0	0	0
49	3	4	-0.4731	1.374	8.828	1.362	0	0	0
50	3	5	-0.4971	-2.692	5.434	-0.358	0	0	0
51	3	6	-0.5911	2.063	8.886	0.638	0	0	0
52	3	7	0.416	-2.869	5.551	-1.335	0	0	0
53	3	8	0.153	1.467	7.116	-0.517	0	0	0
54	3	8	0.1435	-0.266	5.683	-1.317	0	0	0
55	3	8	0.1435	-2.84	7.201	1.539	0	0	0
56	3	8	0.153	-1.107	8.633	2.34	0	0	0
57	3	9	0.0687	3.638	9.662	2.503	0	0	0
58	3	9	0.0687	2.875	10.617	3.643	0	0	0
59	3	9	0.0687	2.926	10.938	2.003	0	0	0
60	3	10	0.3125	0.805	9.371	3.472	0	0	0
21	2	1	0.0376	3.043	3.3	5.423	0	0	0
22	2	1	-0.1355	2.799	2.443	6.485	0	0	0
23	2	1	-0.1585	3.806	1.611	6.95	0	0	0
24	2	1	0.0961	5.057	1.635	6.353	0	0	0
25	2	1	-0.1585	5.301	2.492	5.29	0	0	0
26	2	1	-0.1355	4.294	3.324	4.825	0	0	0
27	2	2	0.6651	1.79	4.761	3.877	0	0	0
28	2	3	-0.1791	0.511	5.551	3.682	0	0	0
29	2	4	-0.4731	1.989	4.137	5.038	0	0	0
30	2	5	-0.4971	6.056	0.744	6.757	0	0	0
31	2	6	-0.5911	1.301	4.195	5.761	0	0	0
32	2	7	0.416	6.232	0.86	7.734	0	0	0
33	2	8	0.153	1.897	2.425	6.916	0	0	0
34	2	8	0.1435	3.63	0.993	7.716	0	0	0
35	2	8	0.1435	6.204	2.51	4.86	0	0	0
36	2	8	0.153	4.47	3.942	4.059	0	0	0
37	2	9	0.0687	-0.275	4.971	3.896	0	0	0
38	2	9	0.0687	0.489	5.926	2.756	0	0	0
39	2	9	0.0687	0.437	6.247	4.396	0	0	0
40	2	10	0.3125	2.559	4.68	2.927	0	0	0
61	4	1	0.0376	9.486	1.391	5.423	0	0	0
62	4	1	-0.1355	9.242	2.248	6.485	0	0	0
63	4	1	-0.1585	10.249	3.08	6.95	0	0	0
64	4	1	0.0961	11.5	3.055	6.353	0	0	0
65	4	1	-0.1585	11.744	2.198	5.29	0	0	0
66	4	1	-0.1355	10.737	1.366	4.825	0	0	0
67	4	2	0.6651	8.233	-0.07	3.877	0	0	0
68	4	3	-0.1791	6.955	-0.86	3.682	0	0	0
69	4	4	-0.4731	8.432	0.554	5.038	0	0	0
70	4	5	-0.4971	12.499	3.947	6.757	0	0	0
71	4	6	-0.5911	7.744	0.496	5.761	0	0	0
72	4	7	0.416	12.675	3.831	7.734	0	0	0
73	4	8	0.153	8.34	2.266	6.916	0	0	0
74	4	8	0.1435	10.073	3.698	7.716	0	0	0
75	4	8	0.1435	12.647	2.18	4.86	0	0	0
76	4	8	0.153	10.914	0.748	4.059	0	0	0
77	4	9	0.0687	6.168	-0.28	3.896	0	0	0
78	4	9	0.0687	6.932	-1.235	2.756	0	0	0
79	4	9	0.0687	6.88	-1.556	4.396	0	0	0
80	4	10	0.3125	9.002	0.011	2.927	0	0	0

Bonds

1 1 1 2
2 2 1 6
3 3 1 9
4 4 2 3
5 5 2 13
6 6 3 4
7 7 3 14
8 8 4 5
9 9 4 10
10 10 5 6
11 11 5 15
12 12 6 16
13 13 7 8
14 14 7 9
15 15 7 11
16 16 8 17
17 17 8 18
18 18 8 19
19 19 9 20
20 20 10 12
21 1 41 42
22 2 41 46
23 3 41 49
24 4 42 43
25 5 42 53
26 6 43 44
27 7 43 54
28 8 44 45
29 9 44 50
30 10 45 46
31 11 45 55
32 12 46 56
33 13 47 48
34 14 47 49
35 15 47 51
36 16 48 57
37 17 48 58
38 18 48 59
39 19 49 60
40 20 50 52
41 1 21 22
42 2 21 26
43 3 21 29
44 4 22 23
45 5 22 33
46 6 23 24
47 7 23 34
48 8 24 25
49 9 24 30
50 10 25 26
51 11 25 35
52 12 26 36
53 13 27 28
54 14 27 29
55 15 27 31
56 16 28 37
57 17 28 38
58 18 28 39
59 19 29 40
60 20 30 32
61 1 61 62
62 2 61 66
63 3 61 69
64 4 62 63
65 5 62 73
66 6 63 64
67 7 63 74
68 8 64 65
69 9 64 70
70 10 65 66
71 11 65 75
72 12 66 76
73 13 67 68
74 14 67 69
75 15 67 71
76 16 68 77
77 17 68 78
78 18 68 79
79 19 69 80
80 20 70 72

Angles

1 7 2 1 6
2 8 2 1 9
3 20 6 1 9
4 1 1 2 3
5 2 1 2 13
6 11 3 2 13
7 9 2 3 4
8 10 2 3 14
9 14 4 3 14
10 12 3 4 5
11 13 3 4 10
12 18 5 4 10
13 15 4 5 6
14 16 4 5 15
15 21 6 5 15
16 3 1 6 5
17 4 1 6 16
18 19 5 6 16
19 26 8 7 9
20 27 8 7 11
21 28 9 7 11
22 22 7 8 17
23 23 7 8 18
24 24 7 8 19
25 29 17 8 18
26 30 17 8 19
27 31 18 8 19
28 5 1 9 7
29 6 1 9 20
30 25 7 9 20
31 17 4 10 12
32 7 42 41 46
33 8 42 41 49
34 20 46 41 49
35 1 41 42 43
36 2 41 42 53
37 11 43 42 53
38 9 42 43 44
39 10 42 43 54
40 14 44 43 54
41 12 43 44 45
42 13 43 44 50
43 18 45 44 50
44 15 44 45 46
45 16 44 45 55
46 21 46 45 55
47 3 41 46 45
48 4 41 46 56
49 19 45 46 56
50 26 48 47 49
51 27 48 47 51
52 28 49 47 51
53 22 47 48 57
54 23 47 48 58
55 24 47 48 59
56 29 57 48 58
57 30 57 48 59
58 31 58 48 59
59 5 41 49 47
60 6 41 49 60
61 25 47 49 60
62 17 44 50 52
63 7 22 21 26
64 8 22 21 29
65 20 26 21 29
66 1 21 22 23
67 2 21 22 33
68 11 23 22 33
69 9 22 23 24
70 10 22 23 34
71 14 24 23 34
72 12 23 24 25
73 13 23 24 30
74 18 25 24 30
75 15 24 25 26
76 16 24 25 35
77 21 26 25 35
78 3 21 26 25
79 4 21 26 36
80 19 25 26 36
81 26 28 27 29
82 27 28 27 31
83 28 29 27 31
84 22 27 28 37
85 23 27 28 38
86 24 27 28 39
87 29 37 28 38
88 30 37 28 39
89 31 38 28 39
90 5 21 29 27
91 6 21 29 40
92 25 27 29 40
93 17 24 30 32
94 7 62 61 66
95 8 62 61 69
96 20 66 61 69
97 1 61 62 63
98 2 61 62 73
99 11 63 62 73
100 9 62 63 64
101 10 62 63 74
102 14 64 63 74
103 12 63 64 65
104 13 63 64 70
105 18 65 64 70
106 15 64 65 66
107 16 64 65 75
108 21 66 65 75
109 3 61 66 65
110 4 61 66 76
111 19 65 66 76
112 26 68 67 69
113 27 68 67 71
114 28 69 67 71
115 22 67 68 77
116 23 67 68 78
117 24 67 68 79
118 29 77 68 78
119 30 77 68 79
120 31 78 68 79
121 5 61 69 67
122 6 61 69 80
123 25 67 69 80
124 17 64 70 72

Dihedrals

1 9 2 1 6 5
2 10 2 1 6 16
3 11 2 1 9 7
4 12 2 1 9 20
5 25 6 1 2 3
6 26 6 1 2 13
7 27 6 1 9 7
8 28 6 1 9 20
9 30 7 1 9 20
10 33 9 1 2 3
11 34 9 1 2 13
12 35 9 1 6 2
13 36 9 1 6 5
14 37 9 1 6 16
15 1 1 2 3 4
16 2 1 2 3 14
17 54 13 2 3 14
18 3 1 3 2 13
19 13 2 3 4 5
20 14 2 3 4 10
21 20 4 3 2 13
22 15 2 4 3 14
23 16 3 4 5 6
24 17 3 4 5 15
25 18 3 4 10 12
26 23 5 4 3 14
27 24 5 4 10 12
28 41 10 4 3 14
29 42 10 4 5 15
30 4 1 5 6 16
31 19 3 5 4 10
32 21 4 5 6 16
33 29 6 5 4 10
34 55 15 5 6 16
35 5 1 6 5 4
36 6 1 6 5 15
37 22 4 6 5 15
38 31 8 7 9 20
39 38 9 7 8 17
40 39 9 7 8 18
41 40 9 7 8 19
42 43 11 7 8 17
43 44 11 7 8 17
44 45 11 7 8 17
45 46 11 7 8 18
46 47 11 7 8 18
47 48 11 7 8 18
48 49 11 7 8 19
49 50 11 7 8 19
50 51 11 7 8 19
51 52 11 7 9 20
52 53 11 7 9 20
53 7 1 9 7 8
54 8 1 9 7 11
55 32 8 9 7 11
56 9 42 41 46 45
57 10 42 41 46 56
58 11 42 41 49 47
59 12 42 41 49 60
60 25 46 41 42 43
61 26 46 41 42 53
62 27 46 41 49 47
63 28 46 41 49 60
64 30 47 41 49 60
65 33 49 41 42 43
66 34 49 41 42 53
67 35 49 41 46 42
68 36 49 41 46 45
69 37 49 41 46 56
70 1 41 42 43 44
71 2 41 42 43 54
72 54 53 42 43 54
73 3 41 43 42 53
74 13 42 43 44 45
75 14 42 43 44 50
76 20 44 43 42 53
77 15 42 44 43 54
78 16 43 44 45 46
79 17 43 44 45 55
80 18 43 44 50 52
81 23 45 44 43 54
82 24 45 44 50 52
83 41 50 44 43 54
84 42 50 44 45 55
85 4 41 45 46 56
86 19 43 45 44 50
87 21 44 45 46 56
88 29 46 45 44 50
89 55 55 45 46 56
90 5 41 46 45 44
91 6 41 46 45 55
92 22 44 46 45 55
93 31 48 47 49 60
94 38 49 47 48 57
95 39 49 47 48 58
96 40 49 47 48 59
97 43 51 47 48 57
98 44 51 47 48 57
99 45 51 47 48 57
100 46 51 47 48 58
101 47 51 47 48 58
102 48 51 47 48 58
103 49 51 47 48 59
104 50 51 47 48 59
105 51 51 47 48 59
106 52 51 47 49 60
107 53 51 47 49 60
108 7 41 49 47 48
109 8 41 49 47 51
110 32 48 49 47 51
111 9 22 21 26 25
112 10 22 21 26 36
113 11 22 21 29 27
114 12 22 21 29 40
115 25 26 21 22 23
116 26 26 21 22 33
117 27 26 21 29 27
118 28 26 21 29 40
119 30 27 21 29 40
120 33 29 21 22 23
121 34 29 21 22 33
122 35 29 21 26 22
123 36 29 21 26 25
124 37 29 21 26 36
125 1 21 22 23 24
126 2 21 22 23 34
127 54 33 22 23 34
128 3 21 23 22 33
129 13 22 23 24 25
130 14 22 23 24 30
131 20 24 23 22 33
132 15 22 24 23 34
133 16 23 24 25 26
134 17 23 24 25 35
135 18 23 24 30 32
136 23 25 24 23 34
137 24 25 24 30 32
138 41 30 24 23 34
139 42 30 24 25 35
140 4 21 25 26 36
141 19 23 25 24 30
142 21 24 25 26 36
143 29 26 25 24 30
144 55 35 25 26 36
145 5 21 26 25 24
146 6 21 26 25 35
147 22 24 26 25 35
148 31 28 27 29 40
149 38 29 27 28 37
150 39 29 27 28 38
151 40 29 27 28 39
152 43 31 27 28 37
153 44 31 27 28 37
154 45 31 27 28 37
155 46 31 27 28 38
156 47 31 27 28 38
157 48 31 27 28 38
158 49 31 27 28 39
159 50 31 27 28 39
160 51 31 27 28 39
161 52 31 27 29 40
162 53 31 27 29 40
163 7 21 29 27 28
164 8 21 29 27 31
165 32 28 29 27 31
166 9 62 61 66 65
167 10 62 61 66 76
168 11 62 61 69 67
169 12 62 61 69 80
170 25 66 61 62 63
171 26 66 61 62 73
172 27 66 61 69 67
173 28 66 61 69 80
174 30 67 61 69 80
175 33 69 61 62 63
176 34 69 61 62 73
177 35 69 61 66 62
178 36 69 61 66 65
179 37 69 61 66 76
180 1 61 62 63 64
181 2 61 62 63 74
182 54 73 62 63 74
183 3 61 63 62 73
184 13 62 63 64 65
185 14 62 63 64 70
186 20 64 63 62 73
187 15 62 64 63 74
188 16 63 64 65 66
189 17 63 64 65 75
190 18 63 64 70 72
191 23 65 64 63 74
192 24 65 64 70 72
193 41 70 64 63 74
194 42 70 64 65 75
195 4 61 65 66 76
196 19 63 65 64 70
197 21 64 65 66 76
198 29 66 65 64 70
199 55 75 65 66 76
200 5 61 66 65 64
201 6 61 66 65 75
202 22 64 66 65 75
203 31 68 67 69 80
204 38 69 67 68 77
205 39 69 67 68 78
206 40 69 67 68 79
207 43 71 67 68 77
208 44 71 67 68 77
209 45 71 67 68 77
210 46 71 67 68 78
211 47 71 67 68 78
212 48 71 67 68 78
213 49 71 67 68 79
214 50 71 67 68 79
215 51 71 67 68 79
216 52 71 67 69 80
217 53 71 67 69 80
218 7 61 69 67 68
219 8 61 69 67 71
220 32 68 69 67 71
