LAMMPS data file via write_data, version 15 Sep 2022, timestep = 0

80 atoms
8 atom types
76 bonds
19 bond types
132 angles
33 angle types
212 dihedrals
53 dihedral types

0 5.1028 xlo xhi
0 7.7642 ylo yhi
0 15.9878 zlo zhi
0 0 0 xy xz yz

Masses

1 16
2 14.01
3 14.01
4 12.01
5 12.01
6 1.008
7 1.008
8 1.008

Bond Coeffs

1 harmonic    6.37700000e+02    1.21830000e+00
2 harmonic    6.37700000e+02    1.21830000e+00
3 harmonic    6.37700000e+02    1.21830000e+00
4 harmonic    2.83300000e+02    1.51100000e+00
5 harmonic    3.73200000e+02    1.03040000e+00
6 harmonic    3.73200000e+02    1.03040000e+00
7 harmonic    3.73200000e+02    1.03040000e+00
8 harmonic    4.27600000e+02    1.37890000e+00
9 harmonic    4.03200000e+02    1.01290000e+00
10 harmonic    4.03200000e+02    1.01290000e+00
11 harmonic    3.13000000e+02    1.52410000e+00
12 harmonic    3.00900000e+02    1.53750000e+00
13 harmonic    3.38700000e+02    1.09100000e+00
14 harmonic    3.00900000e+02    1.53750000e+00
15 harmonic    3.30600000e+02    1.09690000e+00
16 harmonic    3.30600000e+02    1.09690000e+00
17 harmonic    3.13000000e+02    1.52410000e+00
18 harmonic    3.30600000e+02    1.09690000e+00
19 harmonic    3.30600000e+02    1.09690000e+00

Angle Coeffs

1 harmonic    7.79000000e+01    1.30250056e+02
2 harmonic    6.74000000e+01    1.23200053e+02
3 harmonic    6.74000000e+01    1.23200053e+02
4 harmonic    7.42000000e+01    1.23050053e+02
5 harmonic    6.74000000e+01    1.23200053e+02
6 harmonic    6.55000000e+01    1.10730047e+02
7 harmonic    6.42000000e+01    1.14210049e+02
8 harmonic    4.86000000e+01    1.08010046e+02
9 harmonic    6.68000000e+01    1.15180049e+02
10 harmonic    6.33000000e+01    1.11040048e+02
11 harmonic    4.69000000e+01    1.08850047e+02
12 harmonic    4.59000000e+01    1.10110047e+02
13 harmonic    4.59000000e+01    1.10110047e+02
14 harmonic    4.59000000e+01    1.10110047e+02
15 harmonic    6.29000000e+01    1.11510048e+02
16 harmonic    4.63000000e+01    1.09800047e+02
17 harmonic    4.63000000e+01    1.09800047e+02
18 harmonic    4.62000000e+01    1.10560047e+02
19 harmonic    6.33000000e+01    1.11040048e+02
20 harmonic    4.63000000e+01    1.09800047e+02
21 harmonic    4.63000000e+01    1.09800047e+02
22 harmonic    4.63000000e+01    1.09800047e+02
23 harmonic    4.63000000e+01    1.09800047e+02
24 harmonic    4.83000000e+01    1.17550051e+02
25 harmonic    4.83000000e+01    1.17550051e+02
26 harmonic    4.69000000e+01    1.08770047e+02
27 harmonic    4.69000000e+01    1.08770047e+02
28 harmonic    4.06000000e+01    1.08300046e+02
29 harmonic    4.06000000e+01    1.08300046e+02
30 harmonic    4.06000000e+01    1.08300046e+02
31 harmonic    3.94000000e+01    1.07580046e+02
32 harmonic    3.94000000e+01    1.07580046e+02
33 harmonic    3.96000000e+01    1.17950051e+02

Dihedral Coeffs

1 charmm    0.00000000e+00         6       180         0
2 charmm    0.00000000e+00         6       180         0
3 charmm    0.00000000e+00         6       180         0
4 charmm    0.00000000e+00         6       180         0
5 charmm    0.00000000e+00         6       180         0
6 charmm    0.00000000e+00         6       180         0
7 multi/harmonic    2.00000000e+00    2.00000000e+00    0.00000000e+00    0.00000000e+00    0.00000000e+00
8 charmm    2.50000000e+00         2       180         0
9 multi/harmonic    2.00000000e+00    2.00000000e+00    0.00000000e+00    0.00000000e+00    0.00000000e+00
10 charmm    2.50000000e+00         2       180         0
11 charmm    0.00000000e+00         6       180         0
12 multi/harmonic    8.00000000e-01    8.00000000e-01    0.00000000e+00    0.00000000e+00    0.00000000e+00
13 multi/harmonic    0.00000000e+00    0.00000000e+00    0.00000000e+00    0.00000000e+00    0.00000000e+00
14 charmm    8.00000000e-02         3       180         0
15 charmm    8.00000000e-02         3       180         0
16 multi/harmonic    0.00000000e+00    0.00000000e+00    0.00000000e+00    0.00000000e+00    0.00000000e+00
17 multi/harmonic    8.00000000e-01    8.00000000e-01    0.00000000e+00    0.00000000e+00    0.00000000e+00
18 multi/harmonic    1.55555545e-01   -4.66666635e-01    0.00000000e+00    6.22222180e-01    0.00000000e+00
19 multi/harmonic    1.55555545e-01   -4.66666635e-01    0.00000000e+00    6.22222180e-01    0.00000000e+00
20 multi/harmonic    1.55555545e-01   -4.66666635e-01    0.00000000e+00    6.22222180e-01    0.00000000e+00
21 multi/harmonic    2.00000000e-01    0.00000000e+00   -8.00000000e-01    0.00000000e+00    8.00000000e-01
22 multi/harmonic    0.00000000e+00    0.00000000e+00    1.40000000e-01    0.00000000e+00    0.00000000e+00
23 charmm    0.00000000e+00         6       180         0
24 charmm    0.00000000e+00         6       180         0
25 multi/harmonic    1.55555545e-01   -4.66666635e-01    0.00000000e+00    6.22222180e-01    0.00000000e+00
26 multi/harmonic    1.55555545e-01   -4.66666635e-01    0.00000000e+00    6.22222180e-01    0.00000000e+00
27 multi/harmonic    1.55555545e-01   -4.66666635e-01    0.00000000e+00    6.22222180e-01    0.00000000e+00
28 multi/harmonic    1.55555545e-01   -4.66666635e-01    0.00000000e+00    6.22222180e-01    0.00000000e+00
29 multi/harmonic    1.55555545e-01   -4.66666635e-01    0.00000000e+00    6.22222180e-01    0.00000000e+00
30 multi/harmonic    1.55555545e-01   -4.66666635e-01    0.00000000e+00    6.22222180e-01    0.00000000e+00
31 charmm    1.10000000e+00         2       180         0
32 multi/harmonic    1.55555545e-01   -4.66666635e-01    0.00000000e+00    6.22222180e-01    0.00000000e+00
33 multi/harmonic    1.60000000e-01   -4.80000000e-01    0.00000000e+00    6.40000000e-01    0.00000000e+00
34 multi/harmonic    1.60000000e-01   -4.80000000e-01    0.00000000e+00    6.40000000e-01    0.00000000e+00
35 multi/harmonic    1.55555545e-01   -4.66666635e-01    0.00000000e+00    6.22222180e-01    0.00000000e+00
36 multi/harmonic    1.55555545e-01   -4.66666635e-01    0.00000000e+00    6.22222180e-01    0.00000000e+00
37 multi/harmonic    1.55555545e-01   -4.66666635e-01    0.00000000e+00    6.22222180e-01    0.00000000e+00
38 charmm    1.05000000e+01         2       180         0
39 multi/harmonic    1.55555545e-01   -4.66666635e-01    0.00000000e+00    6.22222180e-01    0.00000000e+00
40 charmm    2.50000000e+00         2       180         0
41 charmm    2.50000000e+00         2       180         0
42 multi/harmonic    1.55555545e-01   -4.66666635e-01    0.00000000e+00    6.22222180e-01    0.00000000e+00
43 multi/harmonic    1.55555545e-01   -4.66666635e-01    0.00000000e+00    6.22222180e-01    0.00000000e+00
44 charmm    1.10000000e+00         2       180         0
45 multi/harmonic    1.55555545e-01   -4.66666635e-01    0.00000000e+00    6.22222180e-01    0.00000000e+00
46 multi/harmonic    1.55555545e-01   -4.66666635e-01    0.00000000e+00    6.22222180e-01    0.00000000e+00
47 multi/harmonic    1.55555545e-01   -4.66666635e-01    0.00000000e+00    6.22222180e-01    0.00000000e+00
48 multi/harmonic    1.55555545e-01   -4.66666635e-01    0.00000000e+00    6.22222180e-01    0.00000000e+00
49 multi/harmonic    1.55555545e-01   -4.66666635e-01    0.00000000e+00    6.22222180e-01    0.00000000e+00
50 multi/harmonic    1.50000000e-01   -4.50000000e-01    0.00000000e+00    6.00000000e-01    0.00000000e+00
51 multi/harmonic    1.50000000e-01   -4.50000000e-01    0.00000000e+00    6.00000000e-01    0.00000000e+00
52 multi/harmonic    1.50000000e-01   -4.50000000e-01    0.00000000e+00    6.00000000e-01    0.00000000e+00
53 multi/harmonic    1.50000000e-01   -4.50000000e-01    0.00000000e+00    6.00000000e-01    0.00000000e+00

Atoms # full

1	1	1	-0.7648	-0.996817	5.91995	3.87243	0	0	0
2	1	1	-0.7648	0.852627	6.61553	4.8954	0	0	0
3	1	1	-0.6941	0.654	3.769	-0.131	0	0	0
4	1	2	-0.8316	1.942	7.788	2.761	0	0	0
5	1	3	-0.653	2.455	2.845	0.886	0	0	0
6	1	4	0.9276	0.117	6.509	3.878	0	0	0
7	1	5	-0.0715	0.61	7.138	2.559	0	0	0
8	1	5	-0.0704	0.668	6.072	1.459	0	0	0
9	1	5	-0.1764	1.549	4.88	1.816	0	0	0
10	1	4	0.6691	1.511	3.786	0.769	0	0	0
11	1	6	0.4518	1.95263	8.71219	2.28417	0	0	0
12	1	6	0.4518	2.1128	7.92077	3.77825	0	0	0
13	1	6	0.4518	2.6872	7.18319	2.3604	0	0	0
14	1	7	0.0907	-0.0938932	7.91234	2.29249	0	0	0
15	1	8	0.0732	-0.36243	5.70577	1.26578	0	0	0
16	1	8	0.0732	1.0632	6.53987	0.532632	0	0	0
17	1	8	0.0987	1.20453	4.45412	2.78227	0	0	0
18	1	8	0.0987	2.59851	5.2273	1.92379	0	0	0
19	1	6	0.319	2.49287	2.09056	0.230727	0	0	0
20	1	6	0.319	3.12265	2.89617	1.62872	0	0	0
21	2	1	-0.7648	3.54929	1.84316	11.8667	0	0	0
22	2	1	-0.7648	1.6989	1.14936	12.8892	0	0	0
23	2	1	-0.6941	1.897	3.995	7.862	0	0	0
24	2	2	-0.8316	0.609	-0.023	10.755	0	0	0
25	2	3	-0.653	0.096	4.919	8.879	0	0	0
26	2	4	0.9276	2.435	1.255	11.872	0	0	0
27	2	5	-0.0715	1.942	0.626	10.553	0	0	0
28	2	5	-0.0704	1.883	1.692	9.453	0	0	0
29	2	5	-0.1764	1.002	2.884	9.81	0	0	0
30	2	4	0.6691	1.04	3.978	8.763	0	0	0
31	2	6	0.4518	-0.0781359	0.381199	10.0871	0	0	0
32	2	6	0.4518	0.692492	-1.04636	10.5896	0	0	0
33	2	6	0.4518	0.285424	0.14548	11.7289	0	0	0
34	2	7	0.0907	2.64537	-0.148656	10.286	0	0	0
35	2	8	0.0732	2.91325	2.05841	9.25918	0	0	0
36	2	8	0.0732	1.48741	1.22389	8.52693	0	0	0
37	2	8	0.0987	1.34647	3.30988	10.7763	0	0	0
38	2	8	0.0987	-0.0475129	2.5367	9.91779	0	0	0
39	2	6	0.319	-0.475938	4.95513	9.6985	0	0	0
40	2	6	0.319	-0.0376268	5.58619	8.1462	0	0	0
41	3	1	-0.7648	1.5539	5.72552	12.114	0	0	0
42	3	1	-0.7648	3.40412	5.03073	11.0919	0	0	0
43	3	1	-0.6941	3.205	7.878	16.119	0	0	0
44	3	2	-0.8316	4.493	3.859	13.227	0	0	0
45	3	3	-0.653	5.007	8.801	15.102	0	0	0
46	3	4	0.9276	2.668	5.137	12.109	0	0	0
47	3	5	-0.0715	3.161	4.508	13.429	0	0	0
48	3	5	-0.0704	3.22	5.574	14.529	0	0	0
49	3	5	-0.1764	4.101	6.766	14.172	0	0	0
50	3	4	0.6691	4.063	7.86	15.219	0	0	0
51	3	6	0.4518	4.94049	3.69116	14.1507	0	0	0
52	3	6	0.4518	4.36618	2.95243	12.7334	0	0	0
53	3	6	0.4518	5.09944	4.48237	12.6567	0	0	0
54	3	7	0.0907	2.45746	3.73348	13.6959	0	0	0
55	3	8	0.0732	2.18975	5.94041	14.7228	0	0	0
56	3	8	0.0732	3.61559	5.10589	15.4551	0	0	0
57	3	8	0.0987	3.75653	7.19188	13.2057	0	0	0
58	3	8	0.0987	5.15051	6.4187	14.0642	0	0	0
59	3	6	0.319	5.67465	8.74983	14.3593	0	0	0
60	3	6	0.319	5.04487	9.55544	15.7573	0	0	0
61	4	1	-0.7648	6.1001	2.03848	4.12004	0	0	0
62	4	1	-0.7648	4.24988	2.73327	3.09793	0	0	0
63	4	1	-0.6941	4.449	-0.113	8.125	0	0	0
64	4	2	-0.8316	3.161	3.905	5.233	0	0	0
65	4	3	-0.653	2.648	-1.037	7.108	0	0	0
66	4	4	0.9276	4.986	2.627	4.115	0	0	0
67	4	5	-0.0715	4.493	3.256	5.435	0	0	0
68	4	5	-0.0704	4.434	2.19	6.535	0	0	0
69	4	5	-0.1764	3.554	0.998	6.178	0	0	0
70	4	4	0.6691	3.592	-0.096	7.225	0	0	0
71	4	6	0.4518	2.64207	3.91921	6.13417	0	0	0
72	4	6	0.4518	3.29713	4.87941	4.89595	0	0	0
73	4	6	0.4518	2.61668	3.36737	4.52853	0	0	0
74	4	7	0.0907	5.19654	4.03052	5.70194	0	0	0
75	4	8	0.0732	5.46433	1.82405	6.72922	0	0	0
76	4	8	0.0732	4.03787	2.65801	7.46089	0	0	0
77	4	8	0.0987	3.899	0.572215	5.21188	0	0	0
78	4	8	0.0987	2.50438	1.34485	6.06981	0	0	0
79	4	6	0.319	1.98035	-0.985834	6.36528	0	0	0
80	4	6	0.319	2.61013	-1.79144	7.76327	0	0	0


Bonds

1 1 1 6
2 2 2 6
3 3 3 10
4 4 4 7
5 5 4 11
6 6 4 12
7 7 4 13
8 8 5 10
9 9 5 19
10 10 5 20
11 11 6 7
12 12 7 8
13 13 7 14
14 14 8 9
15 15 8 15
16 16 8 16
17 17 9 10
18 18 9 17
19 19 9 18
20 1 21 26
21 2 22 26
22 3 23 30
23 4 24 27
24 5 24 31
25 6 24 32
26 7 24 33
27 8 25 30
28 9 25 39
29 10 25 40
30 11 26 27
31 12 27 28
32 13 27 34
33 14 28 29
34 15 28 35
35 16 28 36
36 17 29 30
37 18 29 37
38 19 29 38
39 1 41 46
40 2 42 46
41 3 43 50
42 4 44 47
43 5 44 51
44 6 44 52
45 7 44 53
46 8 45 50
47 9 45 59
48 10 45 60
49 11 46 47
50 12 47 48
51 13 47 54
52 14 48 49
53 15 48 55
54 16 48 56
55 17 49 50
56 18 49 57
57 19 49 58
58 1 61 66
59 2 62 66
60 3 63 70
61 4 64 67
62 5 64 71
63 6 64 72
64 7 64 73
65 8 65 70
66 9 65 79
67 10 65 80
68 11 66 67
69 12 67 68
70 13 67 74
71 14 68 69
72 15 68 75
73 16 68 76
74 17 69 70
75 18 69 77
76 19 69 78

Angles

1 12 7 4 11
2 13 7 4 12
3 14 7 4 13
4 28 11 4 12
5 29 11 4 13
6 30 12 4 13
7 24 10 5 19
8 25 10 5 20
9 33 19 5 20
10 1 1 6 2
11 2 1 6 7
12 3 2 6 7
13 6 4 7 6
14 7 4 7 8
15 8 4 7 14
16 10 6 7 8
17 11 6 7 14
18 18 8 7 14
19 15 7 8 9
20 16 7 8 15
21 17 7 8 16
22 22 9 8 15
23 23 9 8 16
24 31 15 8 16
25 19 8 9 10
26 20 8 9 17
27 21 8 9 18
28 26 10 9 17
29 27 10 9 18
30 32 17 9 18
31 4 3 10 5
32 5 3 10 9
33 9 5 10 9
34 12 27 24 31
35 13 27 24 32
36 14 27 24 33
37 28 31 24 32
38 29 31 24 33
39 30 32 24 33
40 24 30 25 39
41 25 30 25 40
42 33 39 25 40
43 1 21 26 22
44 2 21 26 27
45 3 22 26 27
46 6 24 27 26
47 7 24 27 28
48 8 24 27 34
49 10 26 27 28
50 11 26 27 34
51 18 28 27 34
52 15 27 28 29
53 16 27 28 35
54 17 27 28 36
55 22 29 28 35
56 23 29 28 36
57 31 35 28 36
58 19 28 29 30
59 20 28 29 37
60 21 28 29 38
61 26 30 29 37
62 27 30 29 38
63 32 37 29 38
64 4 23 30 25
65 5 23 30 29
66 9 25 30 29
67 12 47 44 51
68 13 47 44 52
69 14 47 44 53
70 28 51 44 52
71 29 51 44 53
72 30 52 44 53
73 24 50 45 59
74 25 50 45 60
75 33 59 45 60
76 1 41 46 42
77 2 41 46 47
78 3 42 46 47
79 6 44 47 46
80 7 44 47 48
81 8 44 47 54
82 10 46 47 48
83 11 46 47 54
84 18 48 47 54
85 15 47 48 49
86 16 47 48 55
87 17 47 48 56
88 22 49 48 55
89 23 49 48 56
90 31 55 48 56
91 19 48 49 50
92 20 48 49 57
93 21 48 49 58
94 26 50 49 57
95 27 50 49 58
96 32 57 49 58
97 4 43 50 45
98 5 43 50 49
99 9 45 50 49
100 12 67 64 71
101 13 67 64 72
102 14 67 64 73
103 28 71 64 72
104 29 71 64 73
105 30 72 64 73
106 24 70 65 79
107 25 70 65 80
108 33 79 65 80
109 1 61 66 62
110 2 61 66 67
111 3 62 66 67
112 6 64 67 66
113 7 64 67 68
114 8 64 67 74
115 10 66 67 68
116 11 66 67 74
117 18 68 67 74
118 15 67 68 69
119 16 67 68 75
120 17 67 68 76
121 22 69 68 75
122 23 69 68 76
123 31 75 68 76
124 19 68 69 70
125 20 68 69 77
126 21 68 69 78
127 26 70 69 77
128 27 70 69 78
129 32 77 69 78
130 4 63 70 65
131 5 63 70 69
132 9 65 70 69

Dihedrals

1 31 7 1 6 2
2 45 11 4 7 14
3 46 12 4 7 14
4 47 13 4 7 14
5 38 9 5 10 3
6 1 1 6 7 4
7 2 1 6 7 8
8 3 1 6 7 14
9 4 2 6 7 4
10 5 2 6 7 8
11 6 2 6 7 14
12 18 4 7 8 9
13 19 4 7 8 15
14 20 4 7 8 16
15 25 6 7 4 11
16 26 6 7 4 12
17 27 6 7 4 13
18 28 6 7 8 9
19 29 6 7 8 15
20 30 6 7 8 16
21 35 8 7 4 11
22 36 8 7 4 12
23 37 8 7 4 13
24 48 14 7 8 15
25 49 14 7 8 16
26 32 7 8 9 10
27 33 7 8 9 17
28 34 7 8 9 18
29 39 9 8 7 14
30 50 15 8 9 17
31 51 15 8 9 18
32 52 16 8 9 17
33 53 16 8 9 18
34 42 10 9 8 15
35 43 10 9 8 16
36 7 3 10 5 19
37 8 3 10 5 19
38 9 3 10 5 20
39 10 3 10 5 20
40 11 3 10 9 8
41 12 3 10 9 17
42 13 3 10 9 17
43 14 3 10 9 17
44 15 3 10 9 18
45 16 3 10 9 18
46 17 3 10 9 18
47 21 5 10 9 8
48 22 5 10 9 8
49 23 5 10 9 17
50 24 5 10 9 18
51 40 9 10 5 19
52 41 9 10 5 20
53 44 10 19 5 20
54 31 27 21 26 22
55 45 31 24 27 34
56 46 32 24 27 34
57 47 33 24 27 34
58 38 29 25 30 23
59 1 21 26 27 24
60 2 21 26 27 28
61 3 21 26 27 34
62 4 22 26 27 24
63 5 22 26 27 28
64 6 22 26 27 34
65 18 24 27 28 29
66 19 24 27 28 35
67 20 24 27 28 36
68 25 26 27 24 31
69 26 26 27 24 32
70 27 26 27 24 33
71 28 26 27 28 29
72 29 26 27 28 35
73 30 26 27 28 36
74 35 28 27 24 31
75 36 28 27 24 32
76 37 28 27 24 33
77 48 34 27 28 35
78 49 34 27 28 36
79 32 27 28 29 30
80 33 27 28 29 37
81 34 27 28 29 38
82 39 29 28 27 34
83 50 35 28 29 37
84 51 35 28 29 38
85 52 36 28 29 37
86 53 36 28 29 38
87 42 30 29 28 35
88 43 30 29 28 36
89 7 23 30 25 39
90 8 23 30 25 39
91 9 23 30 25 40
92 10 23 30 25 40
93 11 23 30 29 28
94 12 23 30 29 37
95 13 23 30 29 37
96 14 23 30 29 37
97 15 23 30 29 38
98 16 23 30 29 38
99 17 23 30 29 38
100 21 25 30 29 28
101 22 25 30 29 28
102 23 25 30 29 37
103 24 25 30 29 38
104 40 29 30 25 39
105 41 29 30 25 40
106 44 30 39 25 40
107 31 47 41 46 42
108 45 51 44 47 54
109 46 52 44 47 54
110 47 53 44 47 54
111 38 49 45 50 43
112 1 41 46 47 44
113 2 41 46 47 48
114 3 41 46 47 54
115 4 42 46 47 44
116 5 42 46 47 48
117 6 42 46 47 54
118 18 44 47 48 49
119 19 44 47 48 55
120 20 44 47 48 56
121 25 46 47 44 51
122 26 46 47 44 52
123 27 46 47 44 53
124 28 46 47 48 49
125 29 46 47 48 55
126 30 46 47 48 56
127 35 48 47 44 51
128 36 48 47 44 52
129 37 48 47 44 53
130 48 54 47 48 55
131 49 54 47 48 56
132 32 47 48 49 50
133 33 47 48 49 57
134 34 47 48 49 58
135 39 49 48 47 54
136 50 55 48 49 57
137 51 55 48 49 58
138 52 56 48 49 57
139 53 56 48 49 58
140 42 50 49 48 55
141 43 50 49 48 56
142 7 43 50 45 59
143 8 43 50 45 59
144 9 43 50 45 60
145 10 43 50 45 60
146 11 43 50 49 48
147 12 43 50 49 57
148 13 43 50 49 57
149 14 43 50 49 57
150 15 43 50 49 58
151 16 43 50 49 58
152 17 43 50 49 58
153 21 45 50 49 48
154 22 45 50 49 48
155 23 45 50 49 57
156 24 45 50 49 58
157 40 49 50 45 59
158 41 49 50 45 60
159 44 50 59 45 60
160 31 67 61 66 62
161 45 71 64 67 74
162 46 72 64 67 74
163 47 73 64 67 74
164 38 69 65 70 63
165 1 61 66 67 64
166 2 61 66 67 68
167 3 61 66 67 74
168 4 62 66 67 64
169 5 62 66 67 68
170 6 62 66 67 74
171 18 64 67 68 69
172 19 64 67 68 75
173 20 64 67 68 76
174 25 66 67 64 71
175 26 66 67 64 72
176 27 66 67 64 73
177 28 66 67 68 69
178 29 66 67 68 75
179 30 66 67 68 76
180 35 68 67 64 71
181 36 68 67 64 72
182 37 68 67 64 73
183 48 74 67 68 75
184 49 74 67 68 76
185 32 67 68 69 70
186 33 67 68 69 77
187 34 67 68 69 78
188 39 69 68 67 74
189 50 75 68 69 77
190 51 75 68 69 78
191 52 76 68 69 77
192 53 76 68 69 78
193 42 70 69 68 75
194 43 70 69 68 76
195 7 63 70 65 79
196 8 63 70 65 79
197 9 63 70 65 80
198 10 63 70 65 80
199 11 63 70 69 68
200 12 63 70 69 77
201 13 63 70 69 77
202 14 63 70 69 77
203 15 63 70 69 78
204 16 63 70 69 78
205 17 63 70 69 78
206 21 65 70 69 68
207 22 65 70 69 68
208 23 65 70 69 77
209 24 65 70 69 78
210 40 69 70 65 79
211 41 69 70 65 80
212 44 70 79 65 80
